Name,aa,SMILES,MW,pKa1,pKb2,pKx3,pl4,H,VSC,P1,P2,SASA,NCISC,phospho
Alanine,A,C[C@@H](C(=O)O)N,89.1,2.34,9.69,,6,0.62,27.5,8.1,0.046,1.181,0.007187,0
Cysteine,C,C([C@@H](C(=O)O)N)S,121.16,1.96,10.28,8.18,5.07,0.29,44.6,5.5,0.128,1.461,-0.03661,0
Aspartic acid,D,C([C@@H](C(=O)O)N)C(=O)O,133.11,1.88,9.6,3.65,2.77,-0.9,40,13,0.105,1.587,-0.02382,0
Glutamic acid,E,C(CC(=O)O)[C@@H](C(=O)O)N,147.13,2.19,9.67,4.25,3.22,-0.74,62,12.3,0.151,1.862,0.006802,0
Phenylalanine,F,c1ccc(cc1)C[C@@H](C(=O)O)N,165.19,1.83,9.13,,5.48,1.19,115.5,5.2,0.29,2.228,0.037552,0
Glycine,G,C(C(=O)O)N,75.07,2.34,9.6,,5.97,0.48,0,9,0,0.881,0.179052,0
Histidine,H,O=C([C@H](CC1=CNC=N1)N)O,155.16,1.82,9.17,6,7.59,-0.4,79,10.4,0.23,2.025,-0.01069,0
Isoleucine,I,CC[C@H](C)[C@@H](C(=O)O)N,131.18,2.36,9.6,,6.02,1.38,93.5,5.2,0.186,1.81,0.021631,0
Lysine,K,C(CCN)C[C@@H](C(=O)O)N,146.19,2.18,8.95,10.53,9.74,-1.5,100,11.3,0.219,2.258,0.017708,0
Leucine,L,CC(C)C[C@@H](C(=O)O)N,131.18,2.36,9.6,,5.98,1.06,93.5,4.9,0.186,1.931,0.051672,0
Methionine,M,CSCC[C@H](N)C(=O)O,149.21,2.28,9.21,,5.74,0.64,94.1,5.7,0.221,2.034,0.002683,0
Asparagine,N,O=C(N)C[C@H](N)C(=O)O,132.12,2.02,8.8,,5.41,-0.78,58.7,11.6,0.134,1.655,0.005392,0
Proline,P,C1C[C@H](NC1)C(=O)O,115.13,1.99,10.6,,6.3,0.12,41.9,8,0.131,1.468,0.239531,0
Glutamine,Q,O=C(N)CCC(N)C(=O)O,146.15,2.17,9.13,,5.65,-0.85,80.7,10.5,0.18,1.932,0.049211,0
Arginine,R,C(C[C@@H](C(=O)O)N)CNC(=N)N,174.2,2.17,9.04,12.48,10.76,-2.53,105,10.5,0.291,2.56,0.043587,0
Serine,S,C([C@@H](C(=O)O)N)O,105.09,2.21,9.15,,5.68,-0.18,29.3,9.2,0.062,1.298,0.004627,0
Threonine,T,C[C@H]([C@@H](C(=O)O)N)O,119.12,2.09,9.1,,5.6,-0.05,51.3,8.6,0.108,1.525,0.003352,0
Valine,V,CC(C)[C@@H](C(=O)O)N,117.15,2.32,9.62,,5.96,1.08,71.5,5.9,0.14,1.645,0.057004,0
Tryptophan,W,c1[nH]c2ccccc2c1C[C@H](N)C(=O)O,204.23,2.83,9.39,,5.89,0.81,145.5,5.4,0.409,2.663,0.037977,0
Tyrosine,Y,N[C@@H](Cc1ccc(O)cc1)C(O)=O,181.19,2.2,9.11,10.07,5.66,0.26,117.3,6.2,0.298,2.368,0.023599,0
Phosphoserine,s,O=P(O)(O)OC[C@@H](C(=O)O)N,185.07,,,,,,,,,,,1
Phosphothreonine,t,CC(C(C(=O)O)N)OP(=O)(O)O,199.1,,,,,,,,,,,1
Phosphotyrosine,y,C1=CC(=CC=C1CC(C(=O)O)N)OP(=O)(O)O,261.17,,,,,,,,,,,1